CRYSTAL
PRIMVEC
   2.46100000   0.00000000   0.00000000
  -1.23050000   2.13120388   0.00000000
   0.00000000   0.00000000  20.00000000
PRIMCOORD
   2 1
   6   0.00000000   0.00000000  10.00000000
   6   1.23050000   0.71040129  10.00000000
