NaCl NPT 3-frame variable cell
1.0
   5.640    0.000    0.000
   0.000    5.640    0.000
   0.000    0.000    5.640
Na Cl
1 1
Direct configuration=     1
   0.000000  0.000000  0.000000
   0.500000  0.500000  0.500000
1.0
   5.700    0.000    0.000
   0.000    5.700    0.000
   0.000    0.000    5.700
Na Cl
1 1
Direct configuration=     2
   0.000000  0.000000  0.000000
   0.500000  0.500000  0.500000
1.0
   5.760    0.000    0.000
   0.000    5.760    0.000
   0.000    0.000    5.760
Na Cl
1 1
Direct configuration=     3
   0.000000  0.000000  0.000000
   0.500000  0.500000  0.500000
