ANIMSTEPS 4
CRYSTAL
PRIMVEC
  4.0 0.0 0.0
  0.0 4.0 0.0
  0.0 0.0 4.0
PRIMCOORD 1
  2 1
  Na 0.00 0.00 0.00
  Cl 2.00 2.00 2.00
PRIMCOORD 2
  2 1
  Na 0.10 0.00 0.00
  Cl 2.00 2.00 2.00
PRIMCOORD 3
  2 1
  Na 0.20 0.00 0.00
  Cl 2.00 2.00 2.00
PRIMCOORD 4
  2 1
  Na 0.30 0.00 0.00
  Cl 2.00 2.00 2.00
