NaCl NVE 5-frame
1.0
   5.640    0.000    0.000
   0.000    5.640    0.000
   0.000    0.000    5.640
Na Cl
1 1
Direct configuration=     1
   0.000000  0.000000  0.000000
   0.500000  0.500000  0.500000
Direct configuration=     2
   0.010000  0.000000  0.000000
   0.500000  0.500000  0.500000
Direct configuration=     3
   0.020000  0.000000  0.000000
   0.500000  0.500000  0.500000
Direct configuration=     4
   0.030000  0.000000  0.000000
   0.500000  0.500000  0.500000
Direct configuration=     5
   0.040000  0.000000  0.000000
   0.500000  0.500000  0.500000
